   60
Geometry Step: 7
    C      3.48726463      0.70352260     -0.00000000      3.99999646
    C      3.48726463     -0.70352260     -0.00000000      3.99999646
    C     -3.48726463      0.70352260     -0.00000000      3.99999646
    C     -3.48726463     -0.70352260     -0.00000000      3.99999646
    C      0.70352260     -0.00000000      3.48726463      3.99999646
    C     -0.70352260     -0.00000000      3.48726463      3.99999646
    C      0.70352260      0.00000000     -3.48726463      3.99999646
    C     -0.70352260      0.00000000     -3.48726463      3.99999646
    C     -0.00000000      3.48726463      0.70352260      3.99999646
    C     -0.00000000      3.48726463     -0.70352260      3.99999646
    C     -0.00000000     -3.48726463      0.70352260      3.99999646
    C     -0.00000000     -3.48726463     -0.70352260      3.99999646
    C      3.03866306      1.42939101      1.17446591      4.00001356
    C      3.03866306      1.42939101     -1.17446591      4.00001356
    C      3.03866306     -1.42939101      1.17446591      4.00001356
    C      3.03866306     -1.42939101     -1.17446591      4.00001356
    C     -3.03866306      1.42939101      1.17446591      4.00001356
    C     -3.03866306      1.42939101     -1.17446591      4.00001356
    C     -3.03866306     -1.42939101      1.17446591      4.00001356
    C     -3.03866306     -1.42939101     -1.17446591      4.00001356
    C      1.42939101      1.17446591      3.03866306      4.00001356
    C      1.42939101     -1.17446591      3.03866306      4.00001356
    C     -1.42939101      1.17446591      3.03866306      4.00001356
    C     -1.42939101     -1.17446591      3.03866306      4.00001356
    C      1.42939101      1.17446591     -3.03866306      4.00001356
    C      1.42939101     -1.17446591     -3.03866306      4.00001356
    C     -1.42939101      1.17446591     -3.03866306      4.00001356
    C     -1.42939101     -1.17446591     -3.03866306      4.00001356
    C      1.17446591      3.03866306      1.42939101      4.00001356
    C     -1.17446591      3.03866306      1.42939101      4.00001356
    C      1.17446591      3.03866306     -1.42939101      4.00001356
    C     -1.17446591      3.03866306     -1.42939101      4.00001356
    C      1.17446591     -3.03866306      1.42939101      4.00001356
    C     -1.17446591     -3.03866306      1.42939101      4.00001356
    C      1.17446591     -3.03866306     -1.42939101      4.00001356
    C     -1.17446591     -3.03866306     -1.42939101      4.00001356
    C      2.60383436      0.72585125      2.31277753      3.99998821
    C      2.60383436      0.72585125     -2.31277753      3.99998821
    C      2.60383436     -0.72585125      2.31277753      3.99998821
    C      2.60383436     -0.72585125     -2.31277753      3.99998821
    C     -2.60383436      0.72585125      2.31277753      3.99998821
    C     -2.60383436      0.72585125     -2.31277753      3.99998821
    C     -2.60383436     -0.72585125      2.31277753      3.99998821
    C     -2.60383436     -0.72585125     -2.31277753      3.99998821
    C      0.72585125      2.31277753      2.60383436      3.99998821
    C      0.72585125     -2.31277753      2.60383436      3.99998821
    C     -0.72585125      2.31277753      2.60383436      3.99998821
    C     -0.72585125     -2.31277753      2.60383436      3.99998821
    C      0.72585125      2.31277753     -2.60383436      3.99998821
    C      0.72585125     -2.31277753     -2.60383436      3.99998821
    C     -0.72585125      2.31277753     -2.60383436      3.99998821
    C     -0.72585125     -2.31277753     -2.60383436      3.99998821
    C      2.31277753      2.60383436      0.72585125      3.99998821
    C     -2.31277753      2.60383436      0.72585125      3.99998821
    C      2.31277753      2.60383436     -0.72585125      3.99998821
    C     -2.31277753      2.60383436     -0.72585125      3.99998821
    C      2.31277753     -2.60383436      0.72585125      3.99998821
    C     -2.31277753     -2.60383436      0.72585125      3.99998821
    C      2.31277753     -2.60383436     -0.72585125      3.99998821
    C     -2.31277753     -2.60383436     -0.72585125      3.99998821
